/*--------------------------------*- C++ -*----------------------------------*\
| =========                 |                                                 |
| \\      /  F ield         | OpenFOAM: The Open Source CFD Toolbox           |
|  \\    /   O peration     | Version:  5                                     |
|   \\  /    A nd           | Web:      www.OpenFOAM.org                      |
|    \\/     M anipulation  |                                                 |
\*---------------------------------------------------------------------------*/
FoamFile
{
    version     2.0;
    format      ascii;
    class       volScalarField;
    location    "0";
    object      p;
}
// * * * * * * * * * * * * * * * * * * * * * * * * * * * * * * * * * * * * * //

dimensions      [0 2 -2 0 0 0 0];

// OpenFOAM uses rho-normalised pressure, p* = p/rho
// p0 = 101325, rho = 1.225, p* = p/rho =  82714
internalField   uniform 82714;

boundaryField
{
    inlet
    {
        type            zeroGradient;
	}
    inlet_atm
    {
        type            zeroGradient;
	}
	
	outlet
	{
	    type            fixedValue;
	    value           $internalField;
    }

    /*
    outlet
    {
        type            totalPressure;
        value           $internalField;
		gamma           1.4;
		p0              $internalField;
	}//*/
    
    wall
    {
        type            zeroGradient;
    }
    
    #includeEtc "caseDicts/setConstraintTypes"    
}


// ************************************************************************* //
